t 0 /NodeList/2/$ns3::Ipv4L3Protocol/Tx(1) ns3::Ipv4Header (tos 0x0 DSCP Default ECN Not-ECT ttl 64 id 0 protocol 6 offset (bytes) 0 flags [none] length: 56 10.1.1.1 > 10.2.2.1) ns3::TcpHeader (49153 > 300 [SYN] Seq=0 Ack=0 Win=65535 ns3::TcpOptionTS(0;0) ns3::TcpOptionWinScale(2) ns3::TcpOptionSackPermitted([sack_perm]) ns3::TcpOptionEnd(EOL))
t 0 /NodeList/3/$ns3::Ipv4L3Protocol/Tx(1) ns3::Ipv4Header (tos 0x0 DSCP Default ECN Not-ECT ttl 64 id 0 protocol 6 offset (bytes) 0 flags [none] length: 56 10.1.2.1 > 10.2.3.1) ns3::TcpHeader (49153 > 300 [SYN] Seq=0 Ack=0 Win=65535 ns3::TcpOptionTS(0;0) ns3::TcpOptionWinScale(2) ns3::TcpOptionSackPermitted([sack_perm]) ns3::TcpOptionEnd(EOL))
t 0.008192 /NodeList/4/$ns3::Ipv4L3Protocol/Tx(1) ns3::Ipv4Header (tos 0x0 DSCP Default ECN Not-ECT ttl 64 id 0 protocol 17 offset (bytes) 0 flags [none] length: 540 10.1.3.1 > 10.2.1.1) ns3::UdpHeader (length: 520 49153 > 300) Payload (size=512)
t 0.016384 /NodeList/4/$ns3::Ipv4L3Protocol/Tx(1) ns3::Ipv4Header (tos 0x0 DSCP Default ECN Not-ECT ttl 64 id 1 protocol 17 offset (bytes) 0 flags [none] length: 540 10.1.3.1 > 10.2.1.1) ns3::UdpHeader (length: 520 49153 > 300) Payload (size=512)
t 0.024576 /NodeList/4/$ns3::Ipv4L3Protocol/Tx(1) ns3::Ipv4Header (tos 0x0 DSCP Default ECN Not-ECT ttl 64 id 2 protocol 17 offset (bytes) 0 flags [none] length: 540 10.1.3.1 > 10.2.1.1) ns3::UdpHeader (length: 520 49153 > 300) Payload (size=512)
t 0.032768 /NodeList/4/$ns3::Ipv4L3Protocol/Tx(1) ns3::Ipv4Header (tos 0x0 DSCP Default ECN Not-ECT ttl 64 id 3 protocol 17 offset (bytes) 0 flags [none] length: 540 10.1.3.1 > 10.2.1.1) ns3::UdpHeader (length: 520 49153 > 300) Payload (size=512)
t 0.04096 /NodeList/4/$ns3::Ipv4L3Protocol/Tx(1) ns3::Ipv4Header (tos 0x0 DSCP Default ECN Not-ECT ttl 64 id 4 protocol 17 offset (bytes) 0 flags [none] length: 540 10.1.3.1 > 10.2.1.1) ns3::UdpHeader (length: 520 49153 > 300) Payload (size=512)
t 0.049152 /NodeList/4/$ns3::Ipv4L3Protocol/Tx(1) ns3::Ipv4Header (tos 0x0 DSCP Default ECN Not-ECT ttl 64 id 5 protocol 17 offset (bytes) 0 flags [none] length: 540 10.1.3.1 > 10.2.1.1) ns3::UdpHeader (length: 520 49153 > 300) Payload (size=512)
t 0.057344 /NodeList/4/$ns3::Ipv4L3Protocol/Tx(1) ns3::Ipv4Header (tos 0x0 DSCP Default ECN Not-ECT ttl 64 id 6 protocol 17 offset (bytes) 0 flags [none] length: 540 10.1.3.1 > 10.2.1.1) ns3::UdpHeader (length: 520 49153 > 300) Payload (size=512)
t 0.065536 /NodeList/4/$ns3::Ipv4L3Protocol/Tx(1) ns3::Ipv4Header (tos 0x0 DSCP Default ECN Not-ECT ttl 64 id 7 protocol 17 offset (bytes) 0 flags [none] length: 540 10.1.3.1 > 10.2.1.1) ns3::UdpHeader (length: 520 49153 > 300) Payload (size=512)
t 0.073728 /NodeList/4/$ns3::Ipv4L3Protocol/Tx(1) ns3::Ipv4Header (tos 0x0 DSCP Default ECN Not-ECT ttl 64 id 8 protocol 17 offset (bytes) 0 flags [none] length: 540 10.1.3.1 > 10.2.1.1) ns3::UdpHeader (length: 520 49153 > 300) Payload (size=512)
t 0.08192 /NodeList/4/$ns3::Ipv4L3Protocol/Tx(1) ns3::Ipv4Header (tos 0x0 DSCP Default ECN Not-ECT ttl 64 id 9 protocol 17 offset (bytes) 0 flags [none] length: 540 10.1.3.1 > 10.2.1.1) ns3::UdpHeader (length: 520 49153 > 300) Payload (size=512)
t 0.090112 /NodeList/4/$ns3::Ipv4L3Protocol/Tx(1) ns3::Ipv4Header (tos 0x0 DSCP Default ECN Not-ECT ttl 64 id 10 protocol 17 offset (bytes) 0 flags [none] length: 540 10.1.3.1 > 10.2.1.1) ns3::UdpHeader (length: 520 49153 > 300) Payload (size=512)
t 0.098304 /NodeList/4/$ns3::Ipv4L3Protocol/Tx(1) ns3::Ipv4Header (tos 0x0 DSCP Default ECN Not-ECT ttl 64 id 11 protocol 17 offset (bytes) 0 flags [none] length: 540 10.1.3.1 > 10.2.1.1) ns3::UdpHeader (length: 520 49153 > 300) Payload (size=512)
r 0.103093 /NodeList/0/$ns3::Ipv4L3Protocol/Rx(2) ns3::Ipv4Header (tos 0x0 DSCP Default ECN Not-ECT ttl 64 id 0 protocol 6 offset (bytes) 0 flags [none] length: 56 10.1.1.1 > 10.2.2.1) ns3::TcpHeader (49153 > 300 [SYN] Seq=0 Ack=0 Win=65535 ns3::TcpOptionTS(0;0) ns3::TcpOptionWinScale(2) ns3::TcpOptionSackPermitted([sack_perm]) ns3::TcpOptionEnd(EOL))
t 0.103093 /NodeList/0/$ns3::Ipv4L3Protocol/Tx(1) ns3::Ipv4Header (tos 0x0 DSCP Default ECN Not-ECT ttl 63 id 0 protocol 6 offset (bytes) 0 flags [none] length: 56 10.1.1.1 > 10.2.2.1) ns3::TcpHeader (49153 > 300 [SYN] Seq=0 Ack=0 Win=65535 ns3::TcpOptionTS(0;0) ns3::TcpOptionWinScale(2) ns3::TcpOptionSackPermitted([sack_perm]) ns3::TcpOptionEnd(EOL))
r 0.103093 /NodeList/0/$ns3::Ipv4L3Protocol/Rx(3) ns3::Ipv4Header (tos 0x0 DSCP Default ECN Not-ECT ttl 64 id 0 protocol 6 offset (bytes) 0 flags [none] length: 56 10.1.2.1 > 10.2.3.1) ns3::TcpHeader (49153 > 300 [SYN] Seq=0 Ack=0 Win=65535 ns3::TcpOptionTS(0;0) ns3::TcpOptionWinScale(2) ns3::TcpOptionSackPermitted([sack_perm]) ns3::TcpOptionEnd(EOL))
t 0.103093 /NodeList/0/$ns3::Ipv4L3Protocol/Tx(1) ns3::Ipv4Header (tos 0x0 DSCP Default ECN Not-ECT ttl 63 id 0 protocol 6 offset (bytes) 0 flags [none] length: 56 10.1.2.1 > 10.2.3.1) ns3::TcpHeader (49153 > 300 [SYN] Seq=0 Ack=0 Win=65535 ns3::TcpOptionTS(0;0) ns3::TcpOptionWinScale(2) ns3::TcpOptionSackPermitted([sack_perm]) ns3::TcpOptionEnd(EOL))
t 0.106496 /NodeList/4/$ns3::Ipv4L3Protocol/Tx(1) ns3::Ipv4Header (tos 0x0 DSCP Default ECN Not-ECT ttl 64 id 12 protocol 17 offset (bytes) 0 flags [none] length: 540 10.1.3.1 > 10.2.1.1) ns3::UdpHeader (length: 520 49153 > 300) Payload (size=512)
t 0.114688 /NodeList/4/$ns3::Ipv4L3Protocol/Tx(1) ns3::Ipv4Header (tos 0x0 DSCP Default ECN Not-ECT ttl 64 id 13 protocol 17 offset (bytes) 0 flags [none] length: 540 10.1.3.1 > 10.2.1.1) ns3::UdpHeader (length: 520 49153 > 300) Payload (size=512)
t 0.12288 /NodeList/4/$ns3::Ipv4L3Protocol/Tx(1) ns3::Ipv4Header (tos 0x0 DSCP Default ECN Not-ECT ttl 64 id 14 protocol 17 offset (bytes) 0 flags [none] length: 540 10.1.3.1 > 10.2.1.1) ns3::UdpHeader (length: 520 49153 > 300) Payload (size=512)
t 0.131072 /NodeList/4/$ns3::Ipv4L3Protocol/Tx(1) ns3::Ipv4Header (tos 0x0 DSCP Default ECN Not-ECT ttl 64 id 15 protocol 17 offset (bytes) 0 flags [none] length: 540 10.1.3.1 > 10.2.1.1) ns3::UdpHeader (length: 520 49153 > 300) Payload (size=512)
r 0.137099 /NodeList/0/$ns3::Ipv4L3Protocol/Rx(4) ns3::Ipv4Header (tos 0x0 DSCP Default ECN Not-ECT ttl 64 id 0 protocol 17 offset (bytes) 0 flags [none] length: 540 10.1.3.1 > 10.2.1.1) ns3::UdpHeader (length: 520 49153 > 300) Payload (size=512)
t 0.137099 /NodeList/0/$ns3::Ipv4L3Protocol/Tx(1) ns3::Ipv4Header (tos 0x0 DSCP Default ECN Not-ECT ttl 63 id 0 protocol 17 offset (bytes) 0 flags [none] length: 540 10.1.3.1 > 10.2.1.1) ns3::UdpHeader (length: 520 49153 > 300) Payload (size=512)
t 0.139264 /NodeList/4/$ns3::Ipv4L3Protocol/Tx(1) ns3::Ipv4Header (tos 0x0 DSCP Default ECN Not-ECT ttl 64 id 16 protocol 17 offset (bytes) 0 flags [none] length: 540 10.1.3.1 > 10.2.1.1) ns3::UdpHeader (length: 520 49153 > 300) Payload (size=512)
t 0.147456 /NodeList/4/$ns3::Ipv4L3Protocol/Tx(1) ns3::Ipv4Header (tos 0x0 DSCP Default ECN Not-ECT ttl 64 id 17 protocol 17 offset (bytes) 0 flags [none] length: 540 10.1.3.1 > 10.2.1.1) ns3::UdpHeader (length: 520 49153 > 300) Payload (size=512)
t 0.155648 /NodeList/4/$ns3::Ipv4L3Protocol/Tx(1) ns3::Ipv4Header (tos 0x0 DSCP Default ECN Not-ECT ttl 64 id 18 protocol 17 offset (bytes) 0 flags [none] length: 540 10.1.3.1 > 10.2.1.1) ns3::UdpHeader (length: 520 49153 > 300) Payload (size=512)
t 0.16384 /NodeList/4/$ns3::Ipv4L3Protocol/Tx(1) ns3::Ipv4Header (tos 0x0 DSCP Default ECN Not-ECT ttl 64 id 19 protocol 17 offset (bytes) 0 flags [none] length: 540 10.1.3.1 > 10.2.1.1) ns3::UdpHeader (length: 520 49153 > 300) Payload (size=512)
r 0.166005 /NodeList/0/$ns3::Ipv4L3Protocol/Rx(4) ns3::Ipv4Header (tos 0x0 DSCP Default ECN Not-ECT ttl 64 id 1 protocol 17 offset (bytes) 0 flags [none] length: 540 10.1.3.1 > 10.2.1.1) ns3::UdpHeader (length: 520 49153 > 300) Payload (size=512)
t 0.166005 /NodeList/0/$ns3::Ipv4L3Protocol/Tx(1) ns3::Ipv4Header (tos 0x0 DSCP Default ECN Not-ECT ttl 63 id 1 protocol 17 offset (bytes) 0 flags [none] length: 540 10.1.3.1 > 10.2.1.1) ns3::UdpHeader (length: 520 49153 > 300) Payload (size=512)
t 0.172032 /NodeList/4/$ns3::Ipv4L3Protocol/Tx(1) ns3::Ipv4Header (tos 0x0 DSCP Default ECN Not-ECT ttl 64 id 20 protocol 17 offset (bytes) 0 flags [none] length: 540 10.1.3.1 > 10.2.1.1) ns3::UdpHeader (length: 520 49153 > 300) Payload (size=512)
t 0.180224 /NodeList/4/$ns3::Ipv4L3Protocol/Tx(1) ns3::Ipv4Header (tos 0x0 DSCP Default ECN Not-ECT ttl 64 id 21 protocol 17 offset (bytes) 0 flags [none] length: 540 10.1.3.1 > 10.2.1.1) ns3::UdpHeader (length: 520 49153 > 300) Payload (size=512)
t 0.188416 /NodeList/4/$ns3::Ipv4L3Protocol/Tx(1) ns3::Ipv4Header (tos 0x0 DSCP Default ECN Not-ECT ttl 64 id 22 protocol 17 offset (bytes) 0 flags [none] length: 540 10.1.3.1 > 10.2.1.1) ns3::UdpHeader (length: 520 49153 > 300) Payload (size=512)
r 0.194912 /NodeList/0/$ns3::Ipv4L3Protocol/Rx(4) ns3::Ipv4Header (tos 0x0 DSCP Default ECN Not-ECT ttl 64 id 2 protocol 17 offset (bytes) 0 flags [none] length: 540 10.1.3.1 > 10.2.1.1) ns3::UdpHeader (length: 520 49153 > 300) Payload (size=512)
t 0.194912 /NodeList/0/$ns3::Ipv4L3Protocol/Tx(1) ns3::Ipv4Header (tos 0x0 DSCP Default ECN Not-ECT ttl 63 id 2 protocol 17 offset (bytes) 0 flags [none] length: 540 10.1.3.1 > 10.2.1.1) ns3::UdpHeader (length: 520 49153 > 300) Payload (size=512)
t 0.196608 /NodeList/4/$ns3::Ipv4L3Protocol/Tx(1) ns3::Ipv4Header (tos 0x0 DSCP Default ECN Not-ECT ttl 64 id 23 protocol 17 offset (bytes) 0 flags [none] length: 540 10.1.3.1 > 10.2.1.1) ns3::UdpHeader (length: 520 49153 > 300) Payload (size=512)
t 0.2048 /NodeList/4/$ns3::Ipv4L3Protocol/Tx(1) ns3::Ipv4Header (tos 0x0 DSCP Default ECN Not-ECT ttl 64 id 24 protocol 17 offset (bytes) 0 flags [none] length: 540 10.1.3.1 > 10.2.1.1) ns3::UdpHeader (length: 520 49153 > 300) Payload (size=512)
r 0.212373 /NodeList/1/$ns3::Ipv4L3Protocol/Rx(1) ns3::Ipv4Header (tos 0x0 DSCP Default ECN Not-ECT ttl 63 id 0 protocol 6 offset (bytes) 0 flags [none] length: 56 10.1.1.1 > 10.2.2.1) ns3::TcpHeader (49153 > 300 [SYN] Seq=0 Ack=0 Win=65535 ns3::TcpOptionTS(0;0) ns3::TcpOptionWinScale(2) ns3::TcpOptionSackPermitted([sack_perm]) ns3::TcpOptionEnd(EOL))
t 0.212373 /NodeList/1/$ns3::Ipv4L3Protocol/Tx(3) ns3::Ipv4Header (tos 0x0 DSCP Default ECN Not-ECT ttl 62 id 0 protocol 6 offset (bytes) 0 flags [none] length: 56 10.1.1.1 > 10.2.2.1) ns3::TcpHeader (49153 > 300 [SYN] Seq=0 Ack=0 Win=65535 ns3::TcpOptionTS(0;0) ns3::TcpOptionWinScale(2) ns3::TcpOptionSackPermitted([sack_perm]) ns3::TcpOptionEnd(EOL))
t 0.212992 /NodeList/4/$ns3::Ipv4L3Protocol/Tx(1) ns3::Ipv4Header (tos 0x0 DSCP Default ECN Not-ECT ttl 64 id 25 protocol 17 offset (bytes) 0 flags [none] length: 540 10.1.3.1 > 10.2.1.1) ns3::UdpHeader (length: 520 49153 > 300) Payload (size=512)
t 0.221184 /NodeList/4/$ns3::Ipv4L3Protocol/Tx(1) ns3::Ipv4Header (tos 0x0 DSCP Default ECN Not-ECT ttl 64 id 26 protocol 17 offset (bytes) 0 flags [none] length: 540 10.1.3.1 > 10.2.1.1) ns3::UdpHeader (length: 520 49153 > 300) Payload (size=512)
r 0.221653 /NodeList/1/$ns3::Ipv4L3Protocol/Rx(1) ns3::Ipv4Header (tos 0x0 DSCP Default ECN Not-ECT ttl 63 id 0 protocol 6 offset (bytes) 0 flags [none] length: 56 10.1.2.1 > 10.2.3.1) ns3::TcpHeader (49153 > 300 [SYN] Seq=0 Ack=0 Win=65535 ns3::TcpOptionTS(0;0) ns3::TcpOptionWinScale(2) ns3::TcpOptionSackPermitted([sack_perm]) ns3::TcpOptionEnd(EOL))
t 0.221653 /NodeList/1/$ns3::Ipv4L3Protocol/Tx(4) ns3::Ipv4Header (tos 0x0 DSCP Default ECN Not-ECT ttl 62 id 0 protocol 6 offset (bytes) 0 flags [none] length: 56 10.1.2.1 > 10.2.3.1) ns3::TcpHeader (49153 > 300 [SYN] Seq=0 Ack=0 Win=65535 ns3::TcpOptionTS(0;0) ns3::TcpOptionWinScale(2) ns3::TcpOptionSackPermitted([sack_perm]) ns3::TcpOptionEnd(EOL))
r 0.223819 /NodeList/0/$ns3::Ipv4L3Protocol/Rx(4) ns3::Ipv4Header (tos 0x0 DSCP Default ECN Not-ECT ttl 64 id 3 protocol 17 offset (bytes) 0 flags [none] length: 540 10.1.3.1 > 10.2.1.1) ns3::UdpHeader (length: 520 49153 > 300) Payload (size=512)
t 0.223819 /NodeList/0/$ns3::Ipv4L3Protocol/Tx(1) ns3::Ipv4Header (tos 0x0 DSCP Default ECN Not-ECT ttl 63 id 3 protocol 17 offset (bytes) 0 flags [none] length: 540 10.1.3.1 > 10.2.1.1) ns3::UdpHeader (length: 520 49153 > 300) Payload (size=512)
t 0.229376 /NodeList/4/$ns3::Ipv4L3Protocol/Tx(1) ns3::Ipv4Header (tos 0x0 DSCP Default ECN Not-ECT ttl 64 id 27 protocol 17 offset (bytes) 0 flags [none] length: 540 10.1.3.1 > 10.2.1.1) ns3::UdpHeader (length: 520 49153 > 300) Payload (size=512)
t 0.237568 /NodeList/4/$ns3::Ipv4L3Protocol/Tx(1) ns3::Ipv4Header (tos 0x0 DSCP Default ECN Not-ECT ttl 64 id 28 protocol 17 offset (bytes) 0 flags [none] length: 540 10.1.3.1 > 10.2.1.1) ns3::UdpHeader (length: 520 49153 > 300) Payload (size=512)
t 0.24576 /NodeList/4/$ns3::Ipv4L3Protocol/Tx(1) ns3::Ipv4Header (tos 0x0 DSCP Default ECN Not-ECT ttl 64 id 29 protocol 17 offset (bytes) 0 flags [none] length: 540 10.1.3.1 > 10.2.1.1) ns3::UdpHeader (length: 520 49153 > 300) Payload (size=512)
r 0.252725 /NodeList/0/$ns3::Ipv4L3Protocol/Rx(4) ns3::Ipv4Header (tos 0x0 DSCP Default ECN Not-ECT ttl 64 id 4 protocol 17 offset (bytes) 0 flags [none] length: 540 10.1.3.1 > 10.2.1.1) ns3::UdpHeader (length: 520 49153 > 300) Payload (size=512)
t 0.252725 /NodeList/0/$ns3::Ipv4L3Protocol/Tx(1) ns3::Ipv4Header (tos 0x0 DSCP Default ECN Not-ECT ttl 63 id 4 protocol 17 offset (bytes) 0 flags [none] length: 540 10.1.3.1 > 10.2.1.1) ns3::UdpHeader (length: 520 49153 > 300) Payload (size=512)
t 0.253952 /NodeList/4/$ns3::Ipv4L3Protocol/Tx(1) ns3::Ipv4Header (tos 0x0 DSCP Default ECN Not-ECT ttl 64 id 30 protocol 17 offset (bytes) 0 flags [none] length: 540 10.1.3.1 > 10.2.1.1) ns3::UdpHeader (length: 520 49153 > 300) Payload (size=512)
t 0.262144 /NodeList/4/$ns3::Ipv4L3Protocol/Tx(1) ns3::Ipv4Header (tos 0x0 DSCP Default ECN Not-ECT ttl 64 id 31 protocol 17 offset (bytes) 0 flags [none] length: 540 10.1.3.1 > 10.2.1.1) ns3::UdpHeader (length: 520 49153 > 300) Payload (size=512)
t 0.270336 /NodeList/4/$ns3::Ipv4L3Protocol/Tx(1) ns3::Ipv4Header (tos 0x0 DSCP Default ECN Not-ECT ttl 64 id 32 protocol 17 offset (bytes) 0 flags [none] length: 540 10.1.3.1 > 10.2.1.1) ns3::UdpHeader (length: 520 49153 > 300) Payload (size=512)
t 0.278528 /NodeList/4/$ns3::Ipv4L3Protocol/Tx(1) ns3::Ipv4Header (tos 0x0 DSCP Default ECN Not-ECT ttl 64 id 33 protocol 17 offset (bytes) 0 flags [none] length: 540 10.1.3.1 > 10.2.1.1) ns3::UdpHeader (length: 520 49153 > 300) Payload (size=512)
r 0.281632 /NodeList/0/$ns3::Ipv4L3Protocol/Rx(4) ns3::Ipv4Header (tos 0x0 DSCP Default ECN Not-ECT ttl 64 id 5 protocol 17 offset (bytes) 0 flags [none] length: 540 10.1.3.1 > 10.2.1.1) ns3::UdpHeader (length: 520 49153 > 300) Payload (size=512)
t 0.281632 /NodeList/0/$ns3::Ipv4L3Protocol/Tx(1) ns3::Ipv4Header (tos 0x0 DSCP Default ECN Not-ECT ttl 63 id 5 protocol 17 offset (bytes) 0 flags [none] length: 540 10.1.3.1 > 10.2.1.1) ns3::UdpHeader (length: 520 49153 > 300) Payload (size=512)
t 0.28672 /NodeList/4/$ns3::Ipv4L3Protocol/Tx(1) ns3::Ipv4Header (tos 0x0 DSCP Default ECN Not-ECT ttl 64 id 34 protocol 17 offset (bytes) 0 flags [none] length: 540 10.1.3.1 > 10.2.1.1) ns3::UdpHeader (length: 520 49153 > 300) Payload (size=512)
t 0.294912 /NodeList/4/$ns3::Ipv4L3Protocol/Tx(1) ns3::Ipv4Header (tos 0x0 DSCP Default ECN Not-ECT ttl 64 id 35 protocol 17 offset (bytes) 0 flags [none] length: 540 10.1.3.1 > 10.2.1.1) ns3::UdpHeader (length: 520 49153 > 300) Payload (size=512)
t 0.303104 /NodeList/4/$ns3::Ipv4L3Protocol/Tx(1) ns3::Ipv4Header (tos 0x0 DSCP Default ECN Not-ECT ttl 64 id 36 protocol 17 offset (bytes) 0 flags [none] length: 540 10.1.3.1 > 10.2.1.1) ns3::UdpHeader (length: 520 49153 > 300) Payload (size=512)
r 0.310539 /NodeList/0/$ns3::Ipv4L3Protocol/Rx(4) ns3::Ipv4Header (tos 0x0 DSCP Default ECN Not-ECT ttl 64 id 6 protocol 17 offset (bytes) 0 flags [none] length: 540 10.1.3.1 > 10.2.1.1) ns3::UdpHeader (length: 520 49153 > 300) Payload (size=512)
t 0.310539 /NodeList/0/$ns3::Ipv4L3Protocol/Tx(1) ns3::Ipv4Header (tos 0x0 DSCP Default ECN Not-ECT ttl 63 id 6 protocol 17 offset (bytes) 0 flags [none] length: 540 10.1.3.1 > 10.2.1.1) ns3::UdpHeader (length: 520 49153 > 300) Payload (size=512)
t 0.311296 /NodeList/4/$ns3::Ipv4L3Protocol/Tx(1) ns3::Ipv4Header (tos 0x0 DSCP Default ECN Not-ECT ttl 64 id 37 protocol 17 offset (bytes) 0 flags [none] length: 540 10.1.3.1 > 10.2.1.1) ns3::UdpHeader (length: 520 49153 > 300) Payload (size=512)
r 0.315467 /NodeList/6/$ns3::Ipv4L3Protocol/Rx(1) ns3::Ipv4Header (tos 0x0 DSCP Default ECN Not-ECT ttl 62 id 0 protocol 6 offset (bytes) 0 flags [none] length: 56 10.1.1.1 > 10.2.2.1) ns3::TcpHeader (49153 > 300 [SYN] Seq=0 Ack=0 Win=65535 ns3::TcpOptionTS(0;0) ns3::TcpOptionWinScale(2) ns3::TcpOptionSackPermitted([sack_perm]) ns3::TcpOptionEnd(EOL))
t 0.315467 /NodeList/6/$ns3::Ipv4L3Protocol/Tx(1) ns3::Ipv4Header (tos 0x0 DSCP Default ECN Not-ECT ttl 64 id 0 protocol 6 offset (bytes) 0 flags [none] length: 56 10.2.2.1 > 10.1.1.1) ns3::TcpHeader (300 > 49153 [SYN|ACK] Seq=0 Ack=1 Win=65535 ns3::TcpOptionTS(315;0) ns3::TcpOptionWinScale(2) ns3::TcpOptionSackPermitted([sack_perm]) ns3::TcpOptionEnd(EOL))
t 0.319488 /NodeList/4/$ns3::Ipv4L3Protocol/Tx(1) ns3::Ipv4Header (tos 0x0 DSCP Default ECN Not-ECT ttl 64 id 38 protocol 17 offset (bytes) 0 flags [none] length: 540 10.1.3.1 > 10.2.1.1) ns3::UdpHeader (length: 520 49153 > 300) Payload (size=512)
r 0.323819 /NodeList/1/$ns3::Ipv4L3Protocol/Rx(1) ns3::Ipv4Header (tos 0x0 DSCP Default ECN Not-ECT ttl 63 id 0 protocol 17 offset (bytes) 0 flags [none] length: 540 10.1.3.1 > 10.2.1.1) ns3::UdpHeader (length: 520 49153 > 300) Payload (size=512)
t 0.323819 /NodeList/1/$ns3::Ipv4L3Protocol/Tx(2) ns3::Ipv4Header (tos 0x0 DSCP Default ECN Not-ECT ttl 62 id 0 protocol 17 offset (bytes) 0 flags [none] length: 540 10.1.3.1 > 10.2.1.1) ns3::UdpHeader (length: 520 49153 > 300) Payload (size=512)
r 0.324747 /NodeList/7/$ns3::Ipv4L3Protocol/Rx(1) ns3::Ipv4Header (tos 0x0 DSCP Default ECN Not-ECT ttl 62 id 0 protocol 6 offset (bytes) 0 flags [none] length: 56 10.1.2.1 > 10.2.3.1) ns3::TcpHeader (49153 > 300 [SYN] Seq=0 Ack=0 Win=65535 ns3::TcpOptionTS(0;0) ns3::TcpOptionWinScale(2) ns3::TcpOptionSackPermitted([sack_perm]) ns3::TcpOptionEnd(EOL))
t 0.324747 /NodeList/7/$ns3::Ipv4L3Protocol/Tx(1) ns3::Ipv4Header (tos 0x0 DSCP Default ECN Not-ECT ttl 64 id 0 protocol 6 offset (bytes) 0 flags [none] length: 56 10.2.3.1 > 10.1.2.1) ns3::TcpHeader (300 > 49153 [SYN|ACK] Seq=0 Ack=1 Win=65535 ns3::TcpOptionTS(324;0) ns3::TcpOptionWinScale(2) ns3::TcpOptionSackPermitted([sack_perm]) ns3::TcpOptionEnd(EOL))
t 0.32768 /NodeList/4/$ns3::Ipv4L3Protocol/Tx(1) ns3::Ipv4Header (tos 0x0 DSCP Default ECN Not-ECT ttl 64 id 39 protocol 17 offset (bytes) 0 flags [none] length: 540 10.1.3.1 > 10.2.1.1) ns3::UdpHeader (length: 520 49153 > 300) Payload (size=512)
t 0.335872 /NodeList/4/$ns3::Ipv4L3Protocol/Tx(1) ns3::Ipv4Header (tos 0x0 DSCP Default ECN Not-ECT ttl 64 id 40 protocol 17 offset (bytes) 0 flags [none] length: 540 10.1.3.1 > 10.2.1.1) ns3::UdpHeader (length: 520 49153 > 300) Payload (size=512)
r 0.339445 /NodeList/0/$ns3::Ipv4L3Protocol/Rx(4) ns3::Ipv4Header (tos 0x0 DSCP Default ECN Not-ECT ttl 64 id 7 protocol 17 offset (bytes) 0 flags [none] length: 540 10.1.3.1 > 10.2.1.1) ns3::UdpHeader (length: 520 49153 > 300) Payload (size=512)
t 0.339445 /NodeList/0/$ns3::Ipv4L3Protocol/Tx(1) ns3::Ipv4Header (tos 0x0 DSCP Default ECN Not-ECT ttl 63 id 7 protocol 17 offset (bytes) 0 flags [none] length: 540 10.1.3.1 > 10.2.1.1) ns3::UdpHeader (length: 520 49153 > 300) Payload (size=512)
t 0.344064 /NodeList/4/$ns3::Ipv4L3Protocol/Tx(1) ns3::Ipv4Header (tos 0x0 DSCP Default ECN Not-ECT ttl 64 id 41 protocol 17 offset (bytes) 0 flags [none] length: 540 10.1.3.1 > 10.2.1.1) ns3::UdpHeader (length: 520 49153 > 300) Payload (size=512)
t 0.352256 /NodeList/4/$ns3::Ipv4L3Protocol/Tx(1) ns3::Ipv4Header (tos 0x0 DSCP Default ECN Not-ECT ttl 64 id 42 protocol 17 offset (bytes) 0 flags [none] length: 540 10.1.3.1 > 10.2.1.1) ns3::UdpHeader (length: 520 49153 > 300) Payload (size=512)
t 0.360448 /NodeList/4/$ns3::Ipv4L3Protocol/Tx(1) ns3::Ipv4Header (tos 0x0 DSCP Default ECN Not-ECT ttl 64 id 43 protocol 17 offset (bytes) 0 flags [none] length: 540 10.1.3.1 > 10.2.1.1) ns3::UdpHeader (length: 520 49153 > 300) Payload (size=512)
r 0.368352 /NodeList/0/$ns3::Ipv4L3Protocol/Rx(4) ns3::Ipv4Header (tos 0x0 DSCP Default ECN Not-ECT ttl 64 id 8 protocol 17 offset (bytes) 0 flags [none] length: 540 10.1.3.1 > 10.2.1.1) ns3::UdpHeader (length: 520 49153 > 300) Payload (size=512)
t 0.368352 /NodeList/0/$ns3::Ipv4L3Protocol/Tx(1) ns3::Ipv4Header (tos 0x0 DSCP Default ECN Not-ECT ttl 63 id 8 protocol 17 offset (bytes) 0 flags [none] length: 540 10.1.3.1 > 10.2.1.1) ns3::UdpHeader (length: 520 49153 > 300) Payload (size=512)
t 0.36864 /NodeList/4/$ns3::Ipv4L3Protocol/Tx(1) ns3::Ipv4Header (tos 0x0 DSCP Default ECN Not-ECT ttl 64 id 44 protocol 17 offset (bytes) 0 flags [none] length: 540 10.1.3.1 > 10.2.1.1) ns3::UdpHeader (length: 520 49153 > 300) Payload (size=512)
t 0.376832 /NodeList/4/$ns3::Ipv4L3Protocol/Tx(1) ns3::Ipv4Header (tos 0x0 DSCP Default ECN Not-ECT ttl 64 id 45 protocol 17 offset (bytes) 0 flags [none] length: 540 10.1.3.1 > 10.2.1.1) ns3::UdpHeader (length: 520 49153 > 300) Payload (size=512)
t 0.385024 /NodeList/4/$ns3::Ipv4L3Protocol/Tx(1) ns3::Ipv4Header (tos 0x0 DSCP Default ECN Not-ECT ttl 64 id 46 protocol 17 offset (bytes) 0 flags [none] length: 540 10.1.3.1 > 10.2.1.1) ns3::UdpHeader (length: 520 49153 > 300) Payload (size=512)
t 0.393216 /NodeList/4/$ns3::Ipv4L3Protocol/Tx(1) ns3::Ipv4Header (tos 0x0 DSCP Default ECN Not-ECT ttl 64 id 47 protocol 17 offset (bytes) 0 flags [none] length: 540 10.1.3.1 > 10.2.1.1) ns3::UdpHeader (length: 520 49153 > 300) Payload (size=512)
r 0.397259 /NodeList/0/$ns3::Ipv4L3Protocol/Rx(4) ns3::Ipv4Header (tos 0x0 DSCP Default ECN Not-ECT ttl 64 id 9 protocol 17 offset (bytes) 0 flags [none] length: 540 10.1.3.1 > 10.2.1.1) ns3::UdpHeader (length: 520 49153 > 300) Payload (size=512)
t 0.397259 /NodeList/0/$ns3::Ipv4L3Protocol/Tx(1) ns3::Ipv4Header (tos 0x0 DSCP Default ECN Not-ECT ttl 63 id 9 protocol 17 offset (bytes) 0 flags [none] length: 540 10.1.3.1 > 10.2.1.1) ns3::UdpHeader (length: 520 49153 > 300) Payload (size=512)
t 0.401408 /NodeList/4/$ns3::Ipv4L3Protocol/Tx(1) ns3::Ipv4Header (tos 0x0 DSCP Default ECN Not-ECT ttl 64 id 48 protocol 17 offset (bytes) 0 flags [none] length: 540 10.1.3.1 > 10.2.1.1) ns3::UdpHeader (length: 520 49153 > 300) Payload (size=512)
t 0.4096 /NodeList/4/$ns3::Ipv4L3Protocol/Tx(1) ns3::Ipv4Header (tos 0x0 DSCP Default ECN Not-ECT ttl 64 id 49 protocol 17 offset (bytes) 0 flags [none] length: 540 10.1.3.1 > 10.2.1.1) ns3::UdpHeader (length: 520 49153 > 300) Payload (size=512)
r 0.410539 /NodeList/1/$ns3::Ipv4L3Protocol/Rx(1) ns3::Ipv4Header (tos 0x0 DSCP Default ECN Not-ECT ttl 63 id 1 protocol 17 offset (bytes) 0 flags [none] length: 540 10.1.3.1 > 10.2.1.1) ns3::UdpHeader (length: 520 49153 > 300) Payload (size=512)
t 0.410539 /NodeList/1/$ns3::Ipv4L3Protocol/Tx(2) ns3::Ipv4Header (tos 0x0 DSCP Default ECN Not-ECT ttl 62 id 1 protocol 17 offset (bytes) 0 flags [none] length: 540 10.1.3.1 > 10.2.1.1) ns3::UdpHeader (length: 520 49153 > 300) Payload (size=512)
t 0.417792 /NodeList/4/$ns3::Ipv4L3Protocol/Tx(1) ns3::Ipv4Header (tos 0x0 DSCP Default ECN Not-ECT ttl 64 id 50 protocol 17 offset (bytes) 0 flags [none] length: 540 10.1.3.1 > 10.2.1.1) ns3::UdpHeader (length: 520 49153 > 300) Payload (size=512)
r 0.41856 /NodeList/1/$ns3::Ipv4L3Protocol/Rx(3) ns3::Ipv4Header (tos 0x0 DSCP Default ECN Not-ECT ttl 64 id 0 protocol 6 offset (bytes) 0 flags [none] length: 56 10.2.2.1 > 10.1.1.1) ns3::TcpHeader (300 > 49153 [SYN|ACK] Seq=0 Ack=1 Win=65535 ns3::TcpOptionTS(315;0) ns3::TcpOptionWinScale(2) ns3::TcpOptionSackPermitted([sack_perm]) ns3::TcpOptionEnd(EOL))
t 0.41856 /NodeList/1/$ns3::Ipv4L3Protocol/Tx(1) ns3::Ipv4Header (tos 0x0 DSCP Default ECN Not-ECT ttl 63 id 0 protocol 6 offset (bytes) 0 flags [none] length: 56 10.2.2.1 > 10.1.1.1) ns3::TcpHeader (300 > 49153 [SYN|ACK] Seq=0 Ack=1 Win=65535 ns3::TcpOptionTS(315;0) ns3::TcpOptionWinScale(2) ns3::TcpOptionSackPermitted([sack_perm]) ns3::TcpOptionEnd(EOL))
t 0.425984 /NodeList/4/$ns3::Ipv4L3Protocol/Tx(1) ns3::Ipv4Header (tos 0x0 DSCP Default ECN Not-ECT ttl 64 id 51 protocol 17 offset (bytes) 0 flags [none] length: 540 10.1.3.1 > 10.2.1.1) ns3::UdpHeader (length: 520 49153 > 300) Payload (size=512)
r 0.426165 /NodeList/0/$ns3::Ipv4L3Protocol/Rx(4) ns3::Ipv4Header (tos 0x0 DSCP Default ECN Not-ECT ttl 64 id 10 protocol 17 offset (bytes) 0 flags [none] length: 540 10.1.3.1 > 10.2.1.1) ns3::UdpHeader (length: 520 49153 > 300) Payload (size=512)
t 0.426165 /NodeList/0/$ns3::Ipv4L3Protocol/Tx(1) ns3::Ipv4Header (tos 0x0 DSCP Default ECN Not-ECT ttl 63 id 10 protocol 17 offset (bytes) 0 flags [none] length: 540 10.1.3.1 > 10.2.1.1) ns3::UdpHeader (length: 520 49153 > 300) Payload (size=512)
r 0.42784 /NodeList/1/$ns3::Ipv4L3Protocol/Rx(4) ns3::Ipv4Header (tos 0x0 DSCP Default ECN Not-ECT ttl 64 id 0 protocol 6 offset (bytes) 0 flags [none] length: 56 10.2.3.1 > 10.1.2.1) ns3::TcpHeader (300 > 49153 [SYN|ACK] Seq=0 Ack=1 Win=65535 ns3::TcpOptionTS(324;0) ns3::TcpOptionWinScale(2) ns3::TcpOptionSackPermitted([sack_perm]) ns3::TcpOptionEnd(EOL))
t 0.42784 /NodeList/1/$ns3::Ipv4L3Protocol/Tx(1) ns3::Ipv4Header (tos 0x0 DSCP Default ECN Not-ECT ttl 63 id 0 protocol 6 offset (bytes) 0 flags [none] length: 56 10.2.3.1 > 10.1.2.1) ns3::TcpHeader (300 > 49153 [SYN|ACK] Seq=0 Ack=1 Win=65535 ns3::TcpOptionTS(324;0) ns3::TcpOptionWinScale(2) ns3::TcpOptionSackPermitted([sack_perm]) ns3::TcpOptionEnd(EOL))
t 0.434176 /NodeList/4/$ns3::Ipv4L3Protocol/Tx(1) ns3::Ipv4Header (tos 0x0 DSCP Default ECN Not-ECT ttl 64 id 52 protocol 17 offset (bytes) 0 flags [none] length: 540 10.1.3.1 > 10.2.1.1) ns3::UdpHeader (length: 520 49153 > 300) Payload (size=512)
t 0.442368 /NodeList/4/$ns3::Ipv4L3Protocol/Tx(1) ns3::Ipv4Header (tos 0x0 DSCP Default ECN Not-ECT ttl 64 id 53 protocol 17 offset (bytes) 0 flags [none] length: 540 10.1.3.1 > 10.2.1.1) ns3::UdpHeader (length: 520 49153 > 300) Payload (size=512)
t 0.45056 /NodeList/4/$ns3::Ipv4L3Protocol/Tx(1) ns3::Ipv4Header (tos 0x0 DSCP Default ECN Not-ECT ttl 64 id 54 protocol 17 offset (bytes) 0 flags [none] length: 540 10.1.3.1 > 10.2.1.1) ns3::UdpHeader (length: 520 49153 > 300) Payload (size=512)
r 0.452725 /NodeList/5/$ns3::Ipv4L3Protocol/Rx(1) ns3::Ipv4Header (tos 0x0 DSCP Default ECN Not-ECT ttl 62 id 0 protocol 17 offset (bytes) 0 flags [none] length: 540 10.1.3.1 > 10.2.1.1) ns3::UdpHeader (length: 520 49153 > 300) Payload (size=512)
r 0.455072 /NodeList/0/$ns3::Ipv4L3Protocol/Rx(4) ns3::Ipv4Header (tos 0x0 DSCP Default ECN Not-ECT ttl 64 id 11 protocol 17 offset (bytes) 0 flags [none] length: 540 10.1.3.1 > 10.2.1.1) ns3::UdpHeader (length: 520 49153 > 300) Payload (size=512)
t 0.455072 /NodeList/0/$ns3::Ipv4L3Protocol/Tx(1) ns3::Ipv4Header (tos 0x0 DSCP Default ECN Not-ECT ttl 63 id 11 protocol 17 offset (bytes) 0 flags [none] length: 540 10.1.3.1 > 10.2.1.1) ns3::UdpHeader (length: 520 49153 > 300) Payload (size=512)
t 0.458752 /NodeList/4/$ns3::Ipv4L3Protocol/Tx(1) ns3::Ipv4Header (tos 0x0 DSCP Default ECN Not-ECT ttl 64 id 55 protocol 17 offset (bytes) 0 flags [none] length: 540 10.1.3.1 > 10.2.1.1) ns3::UdpHeader (length: 520 49153 > 300) Payload (size=512)
t 0.466944 /NodeList/4/$ns3::Ipv4L3Protocol/Tx(1) ns3::Ipv4Header (tos 0x0 DSCP Default ECN Not-ECT ttl 64 id 56 protocol 17 offset (bytes) 0 flags [none] length: 540 10.1.3.1 > 10.2.1.1) ns3::UdpHeader (length: 520 49153 > 300) Payload (size=512)
t 0.475136 /NodeList/4/$ns3::Ipv4L3Protocol/Tx(1) ns3::Ipv4Header (tos 0x0 DSCP Default ECN Not-ECT ttl 64 id 57 protocol 17 offset (bytes) 0 flags [none] length: 540 10.1.3.1 > 10.2.1.1) ns3::UdpHeader (length: 520 49153 > 300) Payload (size=512)
t 0.483328 /NodeList/4/$ns3::Ipv4L3Protocol/Tx(1) ns3::Ipv4Header (tos 0x0 DSCP Default ECN Not-ECT ttl 64 id 58 protocol 17 offset (bytes) 0 flags [none] length: 540 10.1.3.1 > 10.2.1.1) ns3::UdpHeader (length: 520 49153 > 300) Payload (size=512)
r 0.483979 /NodeList/0/$ns3::Ipv4L3Protocol/Rx(4) ns3::Ipv4Header (tos 0x0 DSCP Default ECN Not-ECT ttl 64 id 12 protocol 17 offset (bytes) 0 flags [none] length: 540 10.1.3.1 > 10.2.1.1) ns3::UdpHeader (length: 520 49153 > 300) Payload (size=512)
t 0.483979 /NodeList/0/$ns3::Ipv4L3Protocol/Tx(1) ns3::Ipv4Header (tos 0x0 DSCP Default ECN Not-ECT ttl 63 id 12 protocol 17 offset (bytes) 0 flags [none] length: 540 10.1.3.1 > 10.2.1.1) ns3::UdpHeader (length: 520 49153 > 300) Payload (size=512)
t 0.49152 /NodeList/4/$ns3::Ipv4L3Protocol/Tx(1) ns3::Ipv4Header (tos 0x0 DSCP Default ECN Not-ECT ttl 64 id 59 protocol 17 offset (bytes) 0 flags [none] length: 540 10.1.3.1 > 10.2.1.1) ns3::UdpHeader (length: 520 49153 > 300) Payload (size=512)
r 0.497259 /NodeList/1/$ns3::Ipv4L3Protocol/Rx(1) ns3::Ipv4Header (tos 0x0 DSCP Default ECN Not-ECT ttl 63 id 2 protocol 17 offset (bytes) 0 flags [none] length: 540 10.1.3.1 > 10.2.1.1) ns3::UdpHeader (length: 520 49153 > 300) Payload (size=512)
t 0.497259 /NodeList/1/$ns3::Ipv4L3Protocol/Tx(2) ns3::Ipv4Header (tos 0x0 DSCP Default ECN Not-ECT ttl 62 id 2 protocol 17 offset (bytes) 0 flags [none] length: 540 10.1.3.1 > 10.2.1.1) ns3::UdpHeader (length: 520 49153 > 300) Payload (size=512)
t 0.499712 /NodeList/4/$ns3::Ipv4L3Protocol/Tx(1) ns3::Ipv4Header (tos 0x0 DSCP Default ECN Not-ECT ttl 64 id 60 protocol 17 offset (bytes) 0 flags [none] length: 540 10.1.3.1 > 10.2.1.1) ns3::UdpHeader (length: 520 49153 > 300) Payload (size=512)
t 0.507904 /NodeList/4/$ns3::Ipv4L3Protocol/Tx(1) ns3::Ipv4Header (tos 0x0 DSCP Default ECN Not-ECT ttl 64 id 61 protocol 17 offset (bytes) 0 flags [none] length: 540 10.1.3.1 > 10.2.1.1) ns3::UdpHeader (length: 520 49153 > 300) Payload (size=512)